# vtk DataFile Version 4.2
vtk output
ASCII
DATASET STRUCTURED_POINTS
DIMENSIONS 150 200 1
SPACING 1 1 1
ORIGIN 0 0 0
POINT_DATA 30000
SCALARS varY double
LOOKUP_TABLE default
0 0 0 0 0 0 0 0 0 
0 0 0 0 0 0 0 0 0 
0 0 0 0 0 0 0 0 0 
0 0 0 0 0 0 0 0 0 
0 0 0 0 0 0 0 0 0 
0 0 0 0 0 0 0 0 0 
0 0 0 0 0 0 0 0 0 
0 0 0 0 0 0 0 0 0 
0 0 0 0 0 0 0 0 0 
0 0 0 0 0 0 0 0 0 
0 0 0 0 0 0 0 0 0 
0 0 0 0 0 0 0 0 0 
0 0 0 0 0 0 0 0 0 
0 4.4825003745e-05 0.00025167782024 0.00034873668672 0.00042817821182 0.00054019762341 0.00055730012668 0.00046907744382 0.00039469704365 
0.00038861749882 0.000402782982 0.00040702008035 0.00040367336513 0.00037789836895 0.00030798271841 0.00025783386361 0.0002168224267 0.00016948245041 
0.00014335973773 0.00013032372805 0.00011741492435 0.00011719428722 0.00014846142836 0.00024370557844 0.00024355522373 0.0001351078077 2.9832194292e-05 
0 0 0 0 0 0 0 0 0 
0 0 0 0 0 0 0 0 0 
0 0 0 0 0 0 0 0 0 
0 0 0 0 0 0 0 0 0 
0 0 0 0 0 0 0 0 0 
0 0 0 0 0 0 0 0 0 
0 0 0 0 0 0 0 0 0 
0 0 0 0 0 0 0 0 0 
0 0 0 0 0 0 0 0 0 
0 0 0 0 0 0 0 0 0 
0 0 0 0 0 0 0 0 0 
0 0 0 0 0 0 0 0 0 
0 0 0 5.8840750176e-05 0.00016199864229 7.1937982584e-05 1.4549141721e-05 0 0 
0 0 0 0 6.0078271263e-05 0.00033517907235 0.00038024681774 0.00027791147613 0.00021147208242 
0.00026989190312 0.00036983056956 0.00045600384789 0.00048259515223 0.00049872634361 0.00059952072322 0.00080668579607 0.00088829383036 0.0008371258603 
0.00076627757976 0.00075100624678 0.00045306679496 0.00018729132504 0.00017589700183 0.00022906293335 0.00029844347424 0.00032384871249 0.00026215343978 
0.00017907656184 0.00016268814638 4.3274724647e-05 0 0 7.9721803485e-05 0.00019102199056 6.9156220605e-05 9.1640899814e-06 
0 0 0 0 0 0 0 0 0 
0 0 0 0 0 0 0 0 0 
0 0 0 0 0 0 0 0 0 
0 0 0 0 0 0 0 0 0 
0 0 0 0 0 0 0 0 0 
0 0 0 0 0 0 0 0 0 
0 0 0 0 0 0 0 0 0 
0 0 0 0 0 0 0 0 0 
0 0 0 0 0 0 0 0 0 
0 0 0 0 0 0 0 0 0 
0 0 0 0 0 0 0 0 0 
0 0 0 0 0 0 0 0 0 
3.7997898363e-05 0.00010425836283 6.7764115929e-05 8.7157839769e-05 2.7732067175e-05 0 0 0 0 
0 6.2090878535e-05 0.00031946046677 0.00034985524943 0.00027323117471 0.0002435082355 0.00028142980647 0.00036572863749 0.00046515258731 
0.00056677669078 0.00070045852376 0.00095939844461 0.0016617564814 0.001852036186 0.0014157976726 0.00034170803644 0 3.6986632359e-05 
0.00020871106691 0.00037677483704 0.00060392643153 0.00073301822502 0.00079049553593 0.00061483905213 0.00025287608112 3.6846961149e-05 0 
0 9.0180799275e-05 0.00011391126828 5.5811537859e-05 6.8601048068e-05 5.2710461212e-05 4.658602682e-05 8.7475291421e-05 5.3510121657e-05 
0 0 0 0 0 0 0 0 0 
0 0 0 0 0 0 0 0 0 
0 0 0 0 0 0 0 0 0 
0 0 0 0 0 0 0 0 0 
0 0 0 0 0 0 0 0 0 
0 0 0 0 0 0 0 0 0 
0 0 0 0 0 0 0 0 0 
0 0 0 0 0 0 0 0 0 
0 0 0 0 0 0 0 0 0 
0 0 0 0 0 0 0 0 0 
0 0 0 0 0 0 0 0 0 
0 0 0 0 0 0 1.0782186019e-05 4.8179242891e-05 6.8925546417e-05 
0.00010927946246 0.00024993126739 0.00037288114663 0.00043898190429 0.00053230784625 0.00068090797768 0.00086857903285 0.00070237494096 0.00050026130185 
0.00048223240828 0.00047166808778 0.00049008122021 0.00051535909739 0.00052364374449 0.00053753038174 0.00058637056408 0.00063951210382 0.00069744259732 
0.00019167829859 0 0 0.00015609887039 0.00068783641687 0.00056772313193 0.00049437063734 0.00074842542174 0.0011876863811 
0.00095264576688 0.00013655003576 0 0 0 1.1036990672e-05 8.027109148e-05 0.00012154607476 7.9745301369e-05 
7.9335017001e-05 0.00010449164382 0.00010085049971 7.492153192e-05 7.7892711613e-05 9.1894039107e-05 0 0 0 
0 0 0 0 0 0 0 0 0 
0 0 0 0 0 0 0 0 0 
0 0 0 0 0 0 0 0 0 
0 0 0 0 0 0 0 0 0 
0 0 0 0 0 0 0 0 0 
0 0 0 0 0 0 0 0 0 
0 0 0 0 0 0 0 0 0 
0 0 0 0 0 0 0 0 0 
0 0 0 0 0 0 0 0 0 
0 0 0 0 0 0 0 0 0 
0 0 0 0 0 0 0 0 0 
0 0 5.1841745955e-05 0.00011728292053 6.6357223514e-05 8.8222307485e-05 0.00014575238219 0.00025873894604 0.00041500436118 
0.00056334790376 0.00067322679444 0.00077602808892 0.00083342457547 0.00073252817685 0.00063531972266 0.00065765667879 0.00073714364264 0.00084166760534 
0.00090295440721 0.00086121386095 0.0007399932299 0.00061020988418 0.00043113617078 8.3112606849e-05 0 0 0.00010590966103 
0.0004230123781 0.00054769210888 0.00063136225084 0.00076016204268 0.00093810232812 0.00025354873775 0 0 0 
0 0 7.7719128286e-06 4.4634470756e-05 6.0159643181e-05 6.4056615985e-05 7.8010591843e-05 8.8238040516e-05 7.9452278827e-05 
6.0746163898e-05 4.7664347238e-05 1.0966928985e-05 0 0 0 0 0 0 
0 0 0 0 0 0 0 0 0 
0 0 0 0 0 0 0 0 0 
0 0 0 0 0 0 0 0 0 
0 0 0 0 0 0 0 0 0 
0 0 0 0 0 0 0 0 0 
0 0 0 0 0 0 0 0 0 
0 0 0 0 0 0 0 0 0 
0 0 0 0 0 0 0 0 0 
0 0 0 0 0 0 0 0 0 
0 0 0 0 0 0 0 0 0 
0 0 0 0 0 0 0 9.4798924984e-05 0.00024378431297 
0.00013421837099 0.00012032594432 0.00016595472991 0.00027054579588 0.00042936539411 0.00062691942594 0.00081124628493 0.00094001114643 0.0010148817446 
0.001017361696 0.00093294793125 0.00085411585482 0.00086588520217 0.00096206726542 0.0011077818141 0.001227630885 0.0012256098756 0.0010584533325 
0.00079355542934 0.0006194822459 0.002119599337 0.0040283666704 0.0026388686696 0.0013981303511 0.00076206235798 0.00071678499757 0.00079913238087 
0.00088871277866 0.00023171657827 0 0 0 0 0 5.0725822276e-05 9.1273240754e-05 
3.5903535909e-05 3.8946397593e-05 5.0277342473e-05 6.5674544517e-05 6.6788781878e-05 6.2215509477e-05 5.7315454965e-05 4.8967291408e-05 1.0839398288e-05 
0 0 0 0 0 0 0 0 0 
0 0 0 0 0 0 0 0 0 
0 0 0 0 0 0 0 0 0 
0 0 0 0 0 0 0 0 0 
0 0 0 0 0 0 0 0 0 
0 0 0 0 0 0 0 0 0 
0 0 0 0 0 0 0 0 0 
0 0 0 0 0 0 0 0 0 
0 0 0 0 0 0 0 0 0 
0 0 0 0 0 0 0 0 0 
0 0 0 0 0 0 0 0 0 
0 0 4.5119375569e-05 0.00037915228654 0.00064381886896 0.00037272190632 0.00025171493787 0.00023704268001 0.00030473521405 
0.0004449801724 0.00063280646367 0.00084547257339 0.0010468337326 0.0011965350355 0.0012725704729 0.0012726223814 0.0012168172402 0.0011549540334 
0.0011321961579 0.0011740113287 0.0012860003837 0.0014167425634 0.0014644522808 0.0013451459365 0.0010589989748 0.00077922760897 0.0010704869034 
0.0016412328848 0.0014631389904 0.0011344724931 0.00091381295514 0.00081324541539 0.0007729234417 0.00019226808429 0 0 
0 0 0 0 0 0 0 0 0 
0 0 0 0 0 0 0 0 0 
0 0 0 0 0 0 0 0 0 
0 0 0 0 0 0 0 0 0 
0 0 0 0 0 0 0 0 0 
0 0 0 0 0 0 0 0 0 
0 0 0 0 0 0 0 0 0 
0 0 0 0 0 0 0 0 0 
0 0 0 0 0 0 0 0 0 
0 0 0 0 0 0 0 0 0 
0 0 0 0 0 0 0 0 0 
0 0 0 0 0 0 0 0 0 
0 0 0 0 0 0 0 0.00011291941502 0.00040066214257 
0.00054850177944 0.00082544118507 0.00068791865356 0.00048485220357 0.00041946176855 0.00047878810225 0.00060417924769 0.00076909950499 0.00095811995351 
0.0011471643619 0.0013011121205 0.0013911369674 0.0014224429207 0.0014241435048 0.001412054922 0.0013945503704 0.0013866146317 0.0014073526918 
0.0014693797809 0.0015189431177 0.0014581956748 0.0012284937595 0.00090162202739 0.00073797404756 0.00081788785467 0.00093293266513 0.0011353402918 
0.0010707946671 0.00063526084685 0.00010849450962 0 0 0 0 0 0 
0 0 0 0 0 0 0 0 0 
0 0 0 0 0 0 0 0 0 
0 0 0 0 0 0 0 0 0 
0 0 0 0 0 0 0 0 0 
0 0 0 0 0 0 0 0 0 
0 0 0 0 0 0 0 0 0 
0 0 0 0 0 0 0 0 0 
0 0 0 0 0 0 0 0 0 
0 0 0 0 0 0 0 0 0 
0 0 0 0 0 0 0 0 0 
0 0 0 0 0 0 0 0 0 
0 0 0 0 0 0 0 0 0 
0 5.2406351924e-05 0.00038514312107 0.00082600992025 0.00084788051074 0.00065631436095 0.0008035653385 0.00095697514453 0.00080287823512 
0.00061065975668 0.00053353656739 0.0005603735229 0.00062968366153 0.00073403024129 0.00086677803467 0.001022615202 0.0011793275793 0.0012997392401 
0.0013746053104 0.0014242205693 0.0014569424186 0.0014614488631 0.0014375181723 0.0013962405733 0.001394043143 0.0014335493794 0.0013994849588 
0.0012079046647 0.00085154805891 0.00057404888379 0.00050439458297 0.00054062940696 0.00014253855887 0 0 0 
0 0 0 0 0 0 0 0 0 
0 0 0 0 0 0 0 0 0 
0 0 0 0 0 0 0 0 0 
0 0 0 0 0 0 0 0 0 
0 0 0 0 0 0 0 0 0 
0 0 0 0 0 0 0 0 0 
0 0 0 0 0 0 0 0 0 
0 0 0 0 0 0 0 0 0 
0 0 0 0 0 0 0 0 0 
0 0 0 0 0 0 0 0 0 
0 0 0 0 0 0 0 0 0 
0 0 0 0 0 0 0 0 0 
0 0 0 0 0 0 0.0001038465045 0.00042509890665 0.0006084725223 
0.00090059370978 0.00092771329301 0.00083483202785 0.0011287094151 0.0011818240892 0.00094409283346 0.00077742188395 0.00052583713308 0.0004836742619 
0.00049214551496 0.0005524408189 0.00064122830878 0.00076348413345 0.00091820972412 0.0010660605994 0.0011718633822 0.0012380985629 0.0012775732763 
0.0012875975924 0.0012742911748 0.0012621792769 0.0013162311025 0.0014408136529 0.0015062050146 0.0014391011961 0.00075073503685 0.00025914706479 
0.00015593657891 3.2089502119e-05 0 0 0 0 0 0 0 
0 0 0 0 0 0 0 0 0 
0 0 0 0 0 0 0 0 0 
0 0 0 0 0 0 0 0 0 
0 0 0 0 0 0 0 0 0 
0 0 0 0 0 0 0 0 0 
0 0 0 0 0 0 0 0 0 
0 0 0 0 0 0 0 0 0 
0 0 0 0 0 0 0 0 0 
0 0 0 0 0 0 0 0 0 
0 0 0 0 0 0 0 0 0 
0 0 0 0 0 0 0 0 0 
0 0 0 0 0 0 0 0 0 
0 0.00020699005492 0.0013845618185 0.0016314142259 0.0010181121553 0.00096414555733 0.001283456379 0.0011358416884 0.00057743278432 
0.00010047577613 0 0 6.1311407306e-05 0.00030605777825 0.00035481871074 0.00036053476466 0.00043557075627 0.00052650839705 
0.00063470721549 0.00077021020019 0.00089534801026 0.00097352431524 0.0010131292303 0.0010375592555 0.001059110085 0.001100913247 0.0012091370752 
0.0014179319674 0.0016042799209 0.0015099657005 0.00034288292842 0 0 0 0 0 
0 0 0 0 0 0 0 0 0 
0 0 0 0 0 0 0 0 0 
0 0 0 0 0 0 0 0 0 
0 0 0 0 0 0 0 0 0 
0 0 0 0 0 0 0 0 0 
0 0 0 0 0 0 0 0 0 
0 0 0 0 0 0 0 0 0 
0 0 0 0 0 0 0 0 0 
0 0 0 0 0 0 0 0 0 
0 0 0 0 0 0 0 0 0 
0 0 0 0 0 0 0 0 0 
0 0 0 0 0 0 0 0 0 
0 0 0 0 0 0 0.00062349116753 0.002107660987 0.0019491749314 
0.0019527802911 0.0017453641039 0.0010422595759 0.00014795353528 0 0 0 0 0 
2.1388822514e-05 0.0001561654154 0.00028964737168 0.00040310652716 0.00056254897953 0.00065914476715 0.00076000240765 0.0008854498105 0.0009767858315 
0.0010041399125 0.0009920201258 0.00098610124175 0.0010144680117 0.0011046812933 0.0012910568979 0.0015286245182 0.0015047108268 0.00034563022381 
0 0 0 0 0 0 0 0 0 
0 0 0 0 0 0 0 0 0 
0 0 0 0 0 0 0 0 0 
0 0 0 0 0 0 0 0 0 
0 0 0 0 0 0 0 0 0 
0 0 0 0 0 0 0 0 0 
0 0 0 0 0 0 0 0 0 
0 0 0 0 0 0 0 0 0 
0 0 0 0 0 0 0 0 0 
0 0 0 0 0 0 0 0 0 
0 0 0 0 0 0 0 0 0 
0 0 0 0 0 0 0 0 0 
0 0 0 0 0 0 0 0 0 
0 8.0373399915e-05 0.00095970197244 0.002431443473 0.0041773438645 0.0029903494993 0.00093854853758 0.00012422370711 0 
0 0 0 0 0 0 1.9592557123e-05 0.00011350061886 0.00023905077589 
0.00053631665462 0.00096719781161 0.00094728609047 0.00090076520195 0.001045329985 0.0011605105112 0.0012219627138 0.0012418387239 0.0012509869577 
0.0012551551887 0.0012314761588 0.0011665346843 0.00093633839529 0.00019222220449 0 0 0 0 
0 0 0 0 0 0 0 0 0 
0 0 0 0 0 0 0 0 0 
0 0 0 0 0 0 0 0 0 
0 0 0 0 0 0 0 0 0 
0 0 0 0 0 0 0 0 0 
0 0 0 0 0 0 0 0 0 
0 0 0 0 0 0 0 0 0 
0 0 0 0 0 0 0 0 0 
0 0 0 0 0 0 0 0 0 
0 0 0 0 0 0 0 0 0 
0 0 0 0 0 0 0 0 0 
0 0 0 0 0 0 0 0 9.4598167919e-06 
9.8431412226e-05 0.00030037701278 0.00036331346057 0.00021752109348 0.00041810342075 0.0015233205364 0.0020205962159 0.0013439238759 0.0016583591344 
0.0022112084 0.00070744327002 0 0 0 0 0 0 0 
0 0 0 1.7410777867e-05 7.8475841918e-05 8.8727768263e-05 2.2451988705e-05 0 0.00012135454332 
0.00064043650644 0.00091521894428 0.0010932093121 0.0012270783371 0.0013013230475 0.0013160677615 0.0012553246838 0.001059197596 0.00084318949438 
0.00044166690687 5.293656912e-05 0 0 0 0 0 0 0 
0 0 0 0 0 0 0 0 0 
0 0 0 0 0 0 0 0 0 
0 2.2470943735e-05 2.2474158421e-05 0 0 0 0 0 0 
0 0 0 0 0 0 0 0 0 
0 0 0 0 0 0 0 0 0 
0 0 0 0 0 0 0 0 0 
0 0 0 0 0 0 0 0 0 
0 0 0 0 0 0 0 0 0 
0 0 0 0 0 0 0 0 0 
0 0 0 0 0 0 0 0 0 
0 0 0 0 0 0 0 0 0 
0 0 0 0 0 6.1809117303e-06 3.5181157237e-05 0.00011605155058 0.00022016173807 
0.00043918556601 0.00067262105391 0.0013007818339 0.0017221439126 0.0011708796601 0.00084193704624 0.00021463760485 0 0 
0 0 0 0 0 0 0 0 4.7026047016e-05 
0.00014089588915 0.00010194539543 0.00012151604653 0.00025161585628 0.00042128074171 0.00044039497342 0.00043912112334 0.00057407772427 0.00074726015824 
0.00089570124376 0.00094033471226 0.00082737367996 0.00060504858185 0.0003395435896 5.5083474657e-05 0 0 0 
0 0 0 0 0 0 0 0 0 
0 0 0 0 0 0 0 0 0 
0 0 0 0 0 0 8.6245176453e-05 0.00026992057657 5.2952451283e-05 
0 0 0 0 0 0 0 0 0 
0 0 0 0 0 0 0 0 0 
0 0 0 0 0 0 0 0 0 
0 0 0 0 0 0 0 0 0 
0 0 0 0 0 0 0 0 0 
0 0 0 0 0 0 0 0 0 
0 0 0 0 0 0 0 0 0 
0 0 0 0 0 0 0 0 0 
0 0 0 0 0 0 0 0 0 
0 0 2.5794530886e-05 9.7125634892e-05 0.00011742605523 0.00043269240858 0.0012547639163 0.0015033212757 0.0018050314808 
0.001966007574 0.0013360182975 0.00083003909228 0.00044077435636 0.00022638584192 0 1.5466830484e-05 0.000137280113 0.00032406508762 
0.0004142561025 0.00026123189936 3.7543619648e-05 0 0 1.5829508311e-05 7.8115938492e-05 0.00011340063498 0.00014599809828 
0.00019850137047 0.00022498025143 0.0002119906071 0.00023731023446 0.00032913134409 0.00045257088588 0.00057761221376 0.00069721430596 0.00051974180359 
0.00021092423632 2.8855870364e-05 0 0 0 0 0 0 0 
0 0 0 0 0 0 0 0 0 
0 0 0 0 0 0 0 0 0 
0 0 0 0 3.4170175616e-05 3.417506399e-05 0 0 0 
0 0 0 0 0 0 0 0 0 
0 0 0 0 0 0 0 0 0 
0 0 0 0 0 0 0 0 0 
0 0 0 0 0 0 0 0 0 
0 0 0 0 0 0 0 0 0 
0 0 0 0 0 0 0 0 0 
0 0 0 0 0 0 0 0 0 
0 0 0 0 0 0 0 0 0 
0 0 0 0 0 0 0 6.1946163198e-06 6.1952071126e-06 
0 1.8404020719e-05 0.00060240437254 0.00214588661 0.0023049760516 0.0023081154688 0.0031466285695 0.0025480060034 0.0010377948244 
0.00066701275742 0.00058688321099 0.0002909212377 0.00014305513908 0.00011291268514 0.00013871699919 3.8375330181e-05 0 0 
0 1.9755483422e-05 8.016855417e-05 0.00012096209277 0.00017791817734 0.00019038284979 0.00020854988823 0.00022244250841 0.00023054228178 
0.0002478041598 0.00027930867944 0.00027480335204 0.00020971592426 4.3191785703e-05 0 0 0 0 
0 0 0 0 0 0 0 0 0 
0 0 0 0 0 0 0 0 0 
0 0 0 0 0 0 0 0 0 
0 0 0 0 0 0 0 0 0 
0 0 0 0 0 0 0 0 0 
0 0 0 0 0 0 0 0 0 
0 0 0 0 0 0 0 0 0 
0 0 0 0 0 0 0 0 0 
0 0 0 0 0 0 0 0 0 
0 0 0 0 0 0 0 0 0 
0 0 0 0 0 0 0 0 0 
0 0 0 0 0 0 0 0 0 
0 0 0 0 3.0013708548e-06 3.0016571015e-06 0 7.4588425611e-05 0.0010395772894 
0.0024444864743 0.0029806625701 0.0022914578621 0.00033197829924 0 0 0 4.2466309385e-05 0.00011828114983 
6.9346524826e-05 6.7427128036e-05 1.8213711902e-05 0 0 0 0 1.864672482e-05 0.00010669950859 
0.00020799139681 0.0003331920658 0.00041779137418 0.00039123411002 0.00035352556947 0.00034006769211 0.00029208437285 0.00033133063847 0.00025806756162 
9.8570787504e-05 1.406680184e-05 0 0 0 0 0 0 0 
0 0 0 0 0 0 0 0 0 
0 0 0 0 0 0 0 0 0 
0 0 0 0 0 0 0 0 0 
0 0 0 0 0 0 0 0 0 
0 0 0 0 0 0 0 0 0 
0 0 0 0 0 0 0 0 0 
0 0 0 0 0 0 0 0 0 
0 0 0 0 0 0 0 0 0 
0 0 0 0 0 0 0 0 0 
0 0 0 0 0 0 0 0 0 
0 0 0 0 0 0 0 0 0 
0 0 0 0 0 0 0 0 0 
0 9.5771669551e-06 0.00016969335562 0.00019476858713 0.00028396628018 0.00094194986052 0.0012961593434 0.00026887586233 0 
0 0 0 0 0 4.6367993523e-06 1.7076509832e-05 4.80355462e-06 0 
0 0 0 0 8.7208857742e-06 6.0130340864e-05 0.0001165879768 0.00016048911208 4.4598120283e-05 
0 0 0 1.1023754268e-05 1.1023228633e-05 0 0 0 0 
0 0 0 0 0 0 0 0 0 
0 0 0 0 0 0 0 0 0 
0 0 0 0 0 0 0 0 0 
0 0 0 0 0 0 0 0 0 
0 0 0 0 0 0 0 0 0 
0 0 0 0 0 0 0 0 0 
0 0 0 0 0 0 0 0 0 
0 0 0 0 0 0 0 0 0 
0 6.260582113e-06 2.8533967758e-05 9.7718153126e-06 0 0 0 0 0 
0 0 0 0 0 0 0 0 0 
0 0 0 0 0 0 0 0 0 
0 0 0 0 0 0 0 0 0 
0 0 0 0 0 0 0 1.2566713231e-05 9.4319929322e-05 
0.00015725600016 0.00014284708674 0.0002370335617 0.00026449196366 6.1293740617e-05 0 0 0 0 
0 0 0 0 0 0 0 0 0 
0 5.6073514414e-06 4.3410437129e-05 5.8379633019e-05 1.1653962639e-05 0 0 0 0 
0 0 0 0 0 0 0 0 0 
0 0 0 0 0 0 0 0 0 
0 0 0 0 0 0 0 0 0 
0 0 0 0 0 0 0 0 0 
0 0 0 0 0 0 0 0 0 
0 0 0 0 0 0 0 0 0 
0 0 0 0 0 0 0 0 0 
0 0 0 0 0 0 0 0 0 
0 0 0 0 0 0 0 7.3415246686e-06 3.3986047833e-05 
4.9189884135e-05 1.5571723514e-05 0 0 0 0 0 0 0 
0 0 0 0 0 0 0 0 0 
0 0 0 0 0 0 0 0 0 
0 0 0 0 0 0 0 0 0 
0 0 0 0 1.739814674e-05 8.8837618176e-05 0.00012528238826 0.00012883114756 0.00024775923664 
0.00041816021935 0.00011358025988 0 0 0 0 0 0 0 
0 0 0 0 0 0 0 3.8330589252e-06 3.8334244916e-06 
0 0 0 0 0 0 0 0 0 
0 0 0 0 0 0 0 0 0 
0 0 0 0 0 0 0 0 0 
0 0 0 0 0 0 0 0 0 
0 0 0 0 0 0 0 0 0 
0 0 0 0 0 0 0 0 0 
0 0 0 0 0 0 0 0 0 
0 0 0 0 0 0 0 0 0 
0 0 0 0 0 0 0 0 0 
0 0 0 0 9.0451027333e-06 3.7867388222e-05 5.0855908266e-05 8.2216393785e-05 2.7157274198e-05 
0 0 0 0 0 0 0 0 0 
0 0 0 0 0 0 0 0 0 
0 0 0 0 0 0 0 0 0 
0 0 0 0 0 0 0 0 0 
0 1.3002841426e-05 6.5893344723e-05 0.00010564899475 0.00012547456241 0.00024713252353 0.00059705698075 0.00018873255059 0 
0 0 0 0 0 0 0 0 0 
0 1.2479823628e-05 1.2481013853e-05 0 0 0 0 0 0 
0 0 0 0 0 0 0 0 0 
0 0 0 0 0 0 0 0 0 
0 0 0 0 0 0 0 0 0 
0 0 0 0 0 0 0 0 0 
0 0 0 0 0 0 0 0 0 
0 0 0 0 0 0 0 0 0 
0 0 0 0 0 0 0 0 0 
0 0 0 0 0 0 0 0 0 
0 0 0 0 0 0 0 0 0 
0 1.0519013375e-05 4.2524479239e-05 4.139674708e-05 3.2581851509e-05 6.9851284403e-06 0 0 0 
0 0 0 0 0 0 0 0 0 
0 0 0 0 0 0 0 0 0 
0 0 0 0 0 0 0 0 0 
0 0 0 0 0 0 0.00022985911562 0.00049077019668 0.00029814228958 
0.00039057969098 0.00037917434804 0.0002871859008 7.326297788e-05 0 0 0 0 0 
0 0 0 0 0 0 0 1.0720708876e-05 1.0721731331e-05 
0 0 0 0 0 0 0 0 0 
0 0 0 0 0 0 0 0 0 
0 0 0 0 0 0 0 0 0 
0 0 0 0 0 0 0 0 0 
0 0 0 0 0 0 0 0 0 
0 0 0 0 0 0 0 0 0 
0 0 0 0 0 0 0 0 0 
0 0 0 0 0 0 0 0 0 
0 0 0 0 0 0 0 0 0 
0 0 0 0 0 0 0 1.0290677566e-05 4.5170798617e-05 
4.2722479221e-05 2.3206324552e-05 3.7544279015e-06 0 0 0 0 0 0 
0 0 0 0 0 0 0 0 0 
0 0 0 0 0 0 0 0 0 
0 0 0 0 0 0 0 0 0 
0 0 0.0004093264428 0.0013026788562 0.00098624952743 0.0010824871715 0.0013111141454 0.00059655001722 3.4950436214e-05 
0 0 0 0 0 0 0 0 0 
0 0 0 0 0 0 0 0 0 
0 0 0 0 0 0 0 0 0 
0 0 0 0 0 0 0 0 0 
0 0 0 0 0 0 0 0 0 
0 0 0 0 0 0 0 0 0 
0 0 0 0 0 0 0 0 0 
0 0 0 0 0 0 0 0 0 
0 0 0 0 0 0 0 0 0 
0 0 0 0 0 0 0 0 0 
0 0 0 0 0 0 0 0 0 
0 0 0 0 9.7975797547e-06 4.4513958127e-05 4.9038373968e-05 2.8294463611e-05 4.4321089301e-06 
0 0 0 0 0 0 0 0 0 
0 0 0 0 0 0 0 0 0 
0 0 0 0 0 0 0 0 0 
0 0 0 0 0 0 0 0.00043655292376 0.0015864644906 
0.0013883181971 0.0013045042423 0.0013859449712 0.00037356830114 0 0 0 0 0 
0 0 0 0 0 0 0 0 0 
0 0 0 0 0 0 0 0 0 
0 0 0 0 0 0 0 0 0 
0 0 0 0 0 0 0 0 0 
0 0 0 0 0 0 0 0 0 
0 0 0 0 0 0 0 0 0 
0 0 0 0 0 0 0 0 0 
0 0 0 0 0 0 0 0 0 
0 0 0 0 0 0 0 0 0 
0 0 0 0 0 0 0 0 0 
0 0 0 0 0 0 0 0 0 
0 2.1329341917e-05 6.6064281982e-05 6.3021500677e-05 4.2668849684e-05 7.2036665108e-06 0 0 0 
0 0 0 0 0 0 0 0 0 
0 0 0 0 0 0 0 0 0 
0 0 0 0 0 0 0 0 0 
0 0 0 0.00039174904782 0.0015842652413 0.0018091652739 0.0021228289518 0.0012088618733 0.00013162647119 
0 0 0 0 0 0 0 0 0 
0 0 0 0 0 0 0 0 0 
0 0 0 0 0 0 0 0 0 
0 0 0 0 0 0 0 0 0 
0 0 0 0 0 0 0 0 0 
0 0 0 0 0 0 0 0 0 
0 0 0 0 0 0 0 0 0 
0 0 0 0 0 0 0 0 0 
0 0 0 0 0 0 0 0 0 
0 0 0 0 0 0 0 0 0 
0 0 0 0 0 0 0 0 0 
0 0 0 0 0 0 0 0 2.5235974398e-05 
9.5177598059e-05 9.5699567885e-05 0.00017855820488 7.3651816658e-05 0 0 0 0 0 
0 0 0 0 0 0 0 0 0 
0 0 0 0 0 0 0 0 0 
0 0 0 0 0 0 0 0 0.00023089721099 
0.0010639389561 0.0014623819517 0.0017477386516 0.00045923242974 0 0 0 0 0 
0 0 0 0 0 0 0 0 0 
0 0 0 0 0 0 0 0 0 
0 0 0 0 0 0 0 0 0 
0 0 0 0 0 0 0 0 0 
0 0 0 0 0 0 0 0 0 
0 0 0 0 0 0 0 0 0 
0 0 0 0 0 0 0 0 0 
0 0 0 0 0 0 0 0 0 
0 0 0 0 0 0 0 0 0 
0 0 0 0 0 0 0 0 0 
0 0 0 0 0 0 0 0 0 
0 0 0 0 0 0 3.3372687881e-05 0.0001023435362 7.687387749e-05 
1.8894544938e-05 0 0 0 0 0 0 0 0 
0 0 0 0 0 0 0 0 0 
0 0 0 0 0 0 0 0 0 
0 0 0 0.00061242862947 0.0029101824613 0.0025003760197 0.0017069806195 0.0013885481553 0.00023720328623 
0 0 0 0 0 0 0 0 0 
0 0 0 0 0 0 0 0 0 
0 0 0 0 0 0 0 0 0 
0 0 0 0 0 0 0 0 0 
0 0 0 0 0 0 0 0 0 
0 0 0 0 0 0 0 0 0 
0 0 0 0 0 0 0 0 0 
0 0 0 0 0 0 0 0 0 
0 0 0 0 0 0 0 0 0 
0 0 0 0 0 0 0 0 0 
0 0 0 0 0 0 0 0 0 
0 0 0 0 0 0 0 0 0 
0 0 0 0.00010578222402 0.0002149492624 9.428642354e-05 0.00020278441237 8.3379104413e-05 0 
0 0 0 0 0 0 0 0 0 
0 0 0 0 0 0 0 0 0 
0 0 0 0 0 0 0 0 0.00077424551384 
0.0027390256802 0.0029913266647 0.0025766059762 0.0005032373377 0 0 0 0 0 
0 0 0 0 0 0 0 0 0 
0 0 0 0 0 0 0 0 0 
0 0 0 0 0 0 0 0 0 
0 0 0 0 0 0 0 0 0 
0 0 0 0 0 0 0 0 0 
0 0 0 0 0 0 0 0 0 
0 0 0 0 0 0 0 0 0 
0 0 0 0 0 0 0 0 0 
0 0 0 0 0 0 0 0 0 
0 0 0 0 0 0 0 0 0 
0 0 0 0 0 0 0 0 0 
0 0 0 0 0 0 0 0 0 
0 1.0050608305e-05 5.6771679852e-05 0.00013015059146 0.0002750207245 0.00028036263933 5.5962042326e-05 0 0 
0 0 0 0 0 0 0 0 0 
0 0 0 0 0 0 0 0 0 
0 0 0 0.00033627827093 0.0018346783687 0.0034819767893 0.0054019226562 0.0046839784561 0.00097612638106 
0 0 0 0 0 0 0 0 0 
0 0 0 0 0 0 0 0 0 
0 0 0 0 0 0 0 0 0 
0 0 0 0 0 0 0 0 0 
0 0 0 0 0 0 0 0 0 
0 0 0 0 0 0 0 0 0 
0 0 0 0 0 0 0 0 0 
0 0 0 0 0 0 0 0 0 
0 0 0 0 0 0 0 0 0 
0 0 0 0 0 0 0 0 0 
0 0 0 0 0 0 0 0 0 
0 0 0 0 0 0 0 0 0 
0 0 0 0 0 0 0 7.7536155841e-06 4.1449674043e-05 
7.8051296193e-05 0.00011880471389 0.0001163420196 2.3772053633e-05 0 0 0 0 0 
0 0 0 0 0 0 0 0 0 
0 0 0 0.0001237856969 0.0011128543047 0.0024949241111 0.003628772109 0.0045619384842 0.0059225241201 
0.0059331791028 0.0048132223687 0.0052436633879 0.00475509281 0.00095193533009 0 0 0 0 
0 0 0 0 0 0 0 0 0 
0 0 0 0 0 0 0 0 0 
0 0 0 0 0 0 0 0 0 
0 0 0 0 0 0 0 0 0 
0 0 0 0 0 0 0 0 0 
0 0 0 0 0 0 0 0 0 
0 0 0 0 0 0 0 0 0 
0 0 0 0 0 0 0 0 0 
0 0 0 0 0 0 0 0 0 
0 0 0 0 0 0 0 0 0 
0 0 0 0 0 0 0 0 0 
0 0 0 0 0 0 0 0 0 
0 0 0 0 1.0579575944e-05 5.4721380918e-05 7.7372258219e-05 8.4948593023e-05 7.2965853632e-05 
1.4743050762e-05 0 0 0 0 0 0 0 0 
0 0 0 0 0 0 0 0 0.00061904273231 
0.0016672429731 0.0014977241734 0.0028983196719 0.0039625607202 0.0043500965282 0.0054465758173 0.0063576886021 0.0037264197045 0.00046472368423 
0 0 0 0 0 0 0 0 0 
0 0 0 0 0 0 0 0 0 
0 0 0 0 0 0 0 0 0 
0 0 0 0 0 0 0 0 0 
0 0 0 0 0 0 0 0 0 
0 0 0 0 0 0 0 0 0 
0 0 0 0 0 0 0 0 0 
0 0 0 0 0 0 0 0 0 
0 0 0 0 0 0 0 0 0 
0 0 0 0 0 0 0 0 0 
0 0 0 0 0 0 0 0 0 
0 0 0 0 0 0 0 0 0 
0 0 0 0 0 0 0 0 0 
0 1.8087599055e-05 9.257328255e-05 0.00012971266503 0.00014957502309 0.00014524565374 0.00015152221742 4.8153519515e-05 0 
0 0 0 0 0 0 0 0 0 
0 0 0 0 0.00030782676216 0.00087616715547 0.0005470614694 0.00076337629397 0.0021395174986 
0.0035478663003 0.0034155425495 0.0028978169826 0.00075693734388 0 0 0 0 0 
0 0 0 0 0 0 0 0 0 
0 0 0 0 0 0 0 0 0 
0 0 0 0 0 0 0 0 0 
0 0 0 0 0 0 0 0 0 
0 0 0 0 0 0 0 0 0 
0 0 0 0 0 0 0 0 0 
0 0 0 0 0 0 0 0 0 
0 0 0 0 0 0 0 0 0 
0 0 0 0 0 0 0 0 0 
0 0 0 0 0 0 0 0 0 
0 0 0 0 0 0 0 0 0 
0 0 0 0 0 0 0 0 0 
0 0 0 0 0 0 0 3.3706290269e-05 0.00019740840526 
0.00032636253341 0.00040038452768 0.00036960081037 0.00023407184589 4.0638726635e-05 0 0 0 0 
0 0 0 0 0 0 0 0 0 
0.00044354780075 0.00091221649762 0.00077492174255 0.0017414320918 0.001523341436 0.001446003681 0.00046597986752 0 0 
0 0 0 0 0 0 0 0 0 
0 0 0 0 0 0 0 0 0 
0 0 0 0 0 0 0 0 0 
0 0 0 0 0 0 0 0 0 
0 0 0 0 0 0 0 0 0 
0 0 0 0 0 0 0 0 0 
0 0 0 0 0 0 0 0 0 
0 0 0 0 0 0 0 0 0 
0 0 0 0 0 0 0 0 0 
0 0 0 0 0 0 0 0 0 
0 0 0 0 0 0 0 0 0 
0 0 0 0 0 0 0 0 0 
0 0 0 0 0 0 0 0 0 
0 0 0 0.00010257769579 0.00042233165641 0.00055210039251 0.00077963096982 0.00097844295304 0.0010175977856 
0.00077674305268 0.00014973948772 0 0 0 0 0 0 0 
0 0 0 0 0 0.00043664375803 0.0012497208443 0.0009283699757 0.00052574945347 
0.00076830467184 0 0 0 0 0 0 0 0 
0 0 0 0 0 0 0 0 0 
0 0 0 0 0 0 0 0 0 
0 0 0 0 0 0 0 0 0 
0 0 0 0 0 0 0 0 0 
0 0 0 0 0 0 0 0 0 
0 0 0 0 0 0 0 0 0 
0 0 0 0 0 0 0 0 0 
0 0 0 0 0 0 0 0 0 
0 0 0 0 0 0 0 0 0 
0 0 0 0 0 0 0 0 0 
0 0 0 0 0 0 0 0 0 
0 0 0 0 0 0 0 0 0 
0 0 0 0 0 0 0 0 0 
0.00014693177394 0.00074424484889 0.0010546105408 0.0013993110212 0.0018254864582 0.0022277223245 0.0024971775614 0.0031570101101 0.0028386894628 
0.0012228119339 0.00015552086691 0 0 0 0 0 0 0 
0 0 0.00046439757745 0.0006439084836 0.0006773364774 0.00024993272256 0 0 0 
0 0 0 0 0 0 0 0 0 
0 0 0 0 0 0 0 0 0 
0 0 0 0 0 0 0 0 0 
0 0 0 0 0 0 0 0 0 
0 0 0 0 0 0 0 0 0 
0 0 0 0 0 0 0 0 0 
0 0 0 0 0 0 0 0 0 
0 0 0 0 0 0 0 0 0 
0 0 0 0 0 0 0 0 0 
0 0 0 0 0 0 0 0 0 
0 0 0 0 0 0 0 0 0 
0 0 0 0 0 0 0 0 0 
0 0 0 0 0 0 0 0 0 
0 0 0 0 0 0.00045191608371 0.0015505071379 0.0014146241559 0.0016580777701 
0.0020921565124 0.0026919883279 0.0034237538976 0.0041290804365 0.0045147775661 0.0040863824913 0.0029877456464 0.0023485511959 0.0018469670173 
0.00039685084973 0 0 0 0 0 0 0.00083316216798 0.0020948796336 
0.0011029682275 0.0010994561999 0.00036681144548 0 0 0 0 0 0 
0 0 0 0 0 0 0 0 0 
0 0 0 0 0 0 0 0 0 
0 0 0 0 0 0 0 0 0 
0 0 0 0 0 0 0 0 0 
0 0 0 0 0 0 0 0 0 
0 0 0 0 0 0 0 0 0 
0 0 0 0 0 0 0 0 0 
0 0 0 0 0 0 0 0 0 
0 0 0 0 0 0 0 0 0 
0 0 0 0 0 0 0 0 0 
0 0 0 0 0 0 0 0 0 
0 0 0 0 0 0 0 0 0 
0 0 0 0 0 0 0 0 0 
0 0 0.00032290353364 0.0016056655431 0.0021666842457 0.00256610651 0.0029836059264 0.003508740834 0.0042301985562 
0.005127360714 0.005845830442 0.0058496221459 0.0050605129092 0.0040107764774 0.0032278499853 0.0032962570576 0.0032937259893 0.0029327913064 
0.002944678514 0.002936531398 0.0028577841238 0.0029862955774 0.0024017107836 0.0013907384614 0.0012776619531 0.0017472232428 0.00056907209247 
0 0 0 0 0 0 0 0 0 
0 0 0 0 0 0 0 0 0 
0 0 0 0 0 0 0 0 0 
0 0 0 0 0 0 0 0 0 
0 0 0 0 0 0 0 0 0 
0 0 0 0 0 0 0 0 0 
0 0 0 0 0 0 0 0 0 
0 0 0 0 0 0 0 0 0 
0 0 0 0 0 0 0 0 0 
0 0 0 0 0 0 0 0 0 
0 0 0 0 0 0 0 0 0 
0 0 0 0 0 0 0 0 0 
0 0 0 0 0 0 0 0 0 
0 0 0 0 0 0 0 0 0.00048440893016 
0.0025270427419 0.0034324740709 0.0037838861948 0.0040032891823 0.0042826799386 0.004742875041 0.005454597306 0.0062700112173 0.0067405601271 
0.0064888702798 0.0056016455777 0.004567763804 0.0037561016825 0.0031040790555 0.0026209703704 0.0023691294672 0.0022441112067 0.0021242248219 
0.0019606934733 0.0016892568282 0.0015226420755 0.0017945854916 0.00054487734458 0 0 0 0 
0 0 0 0 0 0 0 0 0 
0 0 0 0 0 0 0 0 0 
0 0 0 0 0 0 0 0 0 
0 0 0 0 0 0 0 0 0 
0 0 0 0 0 0 0 0 0 
0 0 0 0 0 0 0 0 0 
0 0 0 0 0 0 0 0 0 
0 0 0 0 0 0 0 0 0 
0 0 0 0 0 0 0 0 0 
0 0 0 0 0 0 0 0 0 
0 0 0 0 0 0 0 0 0 
0 0 0 0 0 0 0 0 0 
0 0 0 0 0 0 0 0 0 
0 0 0 0 0.0017335635959 0.0058712118334 0.0049907430327 0.005018549 0.0050322259889 
0.0050387207588 0.0050799789295 0.0051955081263 0.0054746858857 0.0059538397133 0.0064568156936 0.0066426829419 0.0062608838786 0.0054090905908 
0.0044237456384 0.0035891143272 0.0030209687791 0.0026419468188 0.0023189547048 0.0020189959738 0.001709975414 0.0013876691592 0.001046669771 
0.00091789775602 0.0002582846466 0 0 0 0 0 0 0 
0 0 0 0 0 0 0 0 0 
0 0 0 0 0 0 0 0 0 
0 0 0 0 0 0 0 0 0 
0 0 0 0 0 0 0 0 0 
0 0 0 0 0 0 0 0 0 
0 0 0 0 0 0 0 0 0 
0 0 0 0 0 0 0 0 0 
0 0 0 0 0 0 0 0 0 
0 0 0 0 0 0 0 0 0 
0 0 0 0 0 0 0 0 0 
0 0 0 0 0 0 0 0 0 
0 0 0 0 0 0 0 0 0 
0 0 0 0 0 0 0 0 0.00057529270158 
0.006212525249 0.010702545935 0.0082247155986 0.0069811675567 0.0065701408513 0.0063703665398 0.006210540422 0.0060332201703 0.0058750769499 
0.005798897028 0.0058467109908 0.0060214778367 0.0062091714123 0.0061603942929 0.0056645184652 0.0047919037081 0.0038542462044 0.0031024787478 
0.0025343908464 0.0020450750383 0.0016235892615 0.0012768270835 0.0010102355498 0.00078659356506 0.00017607949181 0 0 
0 0 0 0 0 0 0 0 0 
0 0 0 0 0 0 0 0 0 
0 0 0 0 0 0 0 0 0 
0 0 0 0 0 0 0 0 0 
0 0 0 0 0 0 0 0 0 
0 0 0 0 0 0 0 0 0 
0 0 0 0 0 0 0 0 0 
0 0 0 0 0 0 0 0 0 
0 0 0 0 0 0 0 0 0 
0 0 0 0 0 0 0 0 0 
0 0 0 0 0 0 0 0 0 
0 0 0 0 0 0 0 0 0 
0 0 0 0 0 0 0 0 0 
0 0 0 0 0.0016758800015 0.0071284197751 0.0093605649934 0.010961693927 0.0098595960051 
0.0089369527881 0.0085085393139 0.0081750561622 0.0078194320994 0.0074395371826 0.0070617115866 0.0067173284769 0.0064356074906 0.0062464558569 
0.0061524171374 0.0060611300993 0.0057669241921 0.005115033336 0.0041906094005 0.0032460305737 0.0024253885581 0.0017696353877 0.0013145969206 
0.00095430229447 0.00077008233734 0.00095504979119 0.00029939956793 0 0 0 0 0 
0 0 0 0 0 0 0 0 0 
0 0 0 0 0 0 0 0 0 
0 0 0 0 0 0 0 0 0 
0 0 0 0 0 0 0 0 0 
0 0 0 0 0 0 0 0 0 
0 0 0 0 0 0 0 0 0 
0 0 0 0 0 0 0 0 0 
0 0 0 0 0 0 0 0 0 
0 0 0 0 0 0 0 0 0 
0 0 0 0 0 0 0 0 0 
0 0 0 0 0 0 0 0 0 
0 0 0 0 0 0 0 0 0 
0 0 0 0 0 0 0 0 0.0017956618386 
0.010479479485 0.01281713647 0.011795941217 0.012704401663 0.012677607344 0.011861572033 0.011329121066 0.010892664344 0.010356078959 
0.009735999636 0.0091098772202 0.0085390688056 0.0080368391632 0.0075768897496 0.0071488124073 0.0067740786414 0.0064617357197 0.0061234131391 
0.0055818235103 0.0047547827996 0.0037135287677 0.0026534147109 0.0017786012413 0.0012354896489 0.00091261481105 0.00068173107868 0.00015372664714 
0 0 0 0 0 0 0 0 0 
0 0 0 0 0 0 0 0 0 
0 0 0 0 0 0 0 0 0 
0 0 0 0 0 0 0 0 0 
0 0 0 0 0 0 0 0 0 
0 0 0 0 0 0 0 0 0 
0 0 0 0 0 0 0 0 0 
0 0 0 0 0 0 0 0 0 
0 0 0 0 0 0 0 0 0 
0 0 0 0 0 0 0 0 0 
0 0 0 0 0 0 0 0 0 
0 0 0 0 0 0 0 0 0 
0 0 0 0 0 0 0 0 0 
0.00039038554672 0.0030075152034 0.0066378301381 0.0095546736533 0.012702750022 0.013786734502 0.013866258469 0.014611253812 0.014680593536 
0.015025552884 0.014703562411 0.014192078353 0.013789473652 0.013204554522 0.012376939828 0.01147097444 0.010626601309 0.0099137991814 
0.009317988608 0.0087575481143 0.008168617215 0.0075666076682 0.0070037503256 0.006492989137 0.005945193475 0.0052023960291 0.0041861435955 
0.0030264483986 0.0019358103314 0.00119985324 0.00089740010892 0.00065339848004 0.00013167745497 0 0 0 
0 0 0 0 0 0 0 0 0 
0 0 0 0 0 0 0 0 0 
0 0 0 0 0 0 0 0 0 
0 0 0 0 0 0 0 0 0 
0 0 0 0 0 0 0 0 0 
0 0 0 0 0 0 0 0 0 
0 0 0 0 0 0 0 0 0 
0 0 0 0 0 0 0 0 0 
0 0 0 0 0 0 0 0 0 
0 0 0 0 0 0 0 0 0 
0 0 0 0 0 0 0 0 0 
0 0 0 0 0 0 0 0 0 
0 0 0 0 0.00072835166015 0.0045485841105 0.0062043641121 0.0072051776987 0.0096801396148 
0.011574543569 0.013485137094 0.015112562017 0.016135942338 0.01661754108 0.016794292733 0.016942538316 0.016683486199 0.016204002975 
0.015573957194 0.014723869482 0.013709716163 0.012653985438 0.01167545 0.010844251943 0.010130906091 0.0094408400558 0.0086960230199 
0.0079050804899 0.0071266443613 0.0064001012771 0.0057176448254 0.0049822376944 0.0040889408726 0.0030421571597 0.0019659868973 0.0010474187355 
0.0005034101224 0.00031508997434 8.5448841692e-05 0 0 0 0 0 0 
0 0 0 0 0 0 0 0 0 
0 0 0 0 0 0 0 0 0 
0 0 0 0 0 0 0 0 0 
0 0 0 0 0 0 0 0 0 
0 0 0 0 0 0 0 0 0 
0 0 0 0 0 0 0 0 0 
0 0 0 0 0 0 0 0 0 
0 0 0 0 0 0 0 0 0 
0 0 0 0 0 0 0 0 0 
0 0 0 0 0 0 0 0 0 
0 0 0 0 0 0 0 0 0 
0 0 0 0 0 0 0 0 0 
0.0012179289506 0.0054558715162 0.0073411960381 0.0094359813708 0.011256746167 0.012973027481 0.014180762727 0.01547702679 0.016733573741 