# vtk DataFile Version 4.2
vtk output
ASCII
DATASET STRUCTURED_POINTS
DIMENSIONS 68 68 1
SPACING 1 1 1
ORIGIN 0 0 0
POINT_DATA 4624
SCALARS varY double
LOOKUP_TABLE default
0.14891703353 0.15115553662 0.15361007051 0.14508040695 0.13947510721 0.14877432081 0.14478864721 0.13498055859 0.13731568761 
0.14082264896 0.13618836042 0.13219442931 0.13695202336 0.13161084691 0.12821654184 0.13021482264 0.12824212478 0.12616325722 
0.12839237294 0.12562331909 0.12656770405 0.12447652816 0.12236792104 0.12455224664 0.12334726051 0.12518455056 0.12375881651 
0.12248722558 0.12580322309 0.12386229216 0.12128909027 0.12738842672 0.12178839731 0.12000646024 0.12976637349 0.12636881198 
0.12430257811 0.12721021027 0.1252435196 0.13340787758 0.13131672451 0.13118443642 0.13023205998 0.13096795811 0.13546446291 
0.13596341064 0.13843159091 0.13809331296 0.14223808531 0.14425732184 0.14569937109 0.1491969916 0.15063836494 0.14867286227 
0.15211964138 0.14623488805 0.1512208876 0.15708805731 0.16230500211 0.15257122558 0.15843104042 0.16603565144 0.16489224602 
0.16727026051 0.17662588922 0.16399981669 0.16744501944 0.17822423562 0.42924494256 0.39763498627 0.39101285998 0.36338672024 
0.35087260762 0.32612969882 0.32219338343 0.29585004359 0.28424633198 0.26325030691 0.25454013731 0.23837145064 0.21931997738 
0.20593265358 0.19643368938 0.18598800796 0.17228602416 0.15951313429 0.15465483331 0.14136997651 0.13924414638 0.13500713624 
0.12756211091 0.12017762094 0.11752418094 0.1196624716 0.11310733598 0.11739180371 0.12274066973 0.11829603304 0.11942128549 
0.12910156922 0.12687664664 0.12813268024 0.13859336504 0.14179500744 0.15026508984 0.1557847116 0.15932868478 0.15996237598 
0.16478736824 0.17036791358 0.18173940094 0.18813498024 0.19667678272 0.19651063891 0.20179629624 0.20973236682 0.21804344931 
0.22610161171 0.23364445224 0.21970879519 0.22387868447 0.23115550506 0.23494860616 0.24009992399 0.24302090847 0.24058291754 
0.2409580313 0.22960778074 0.22944048154 0.23379841533 0.23131423614 0.22927108502 0.22323804443 0.21453335867 0.21979713597 
0.20837286788 0.64048763357 0.5983837376 0.57467844006 0.54416578459 0.52667476085 0.48743646344 0.46642742771 0.44513369598 
0.41581788779 0.38459132681 0.36200788148 0.3393368613 0.31141351854 0.2932697357 0.26597499216 0.24194747038 0.21794852024 
0.19893863294 0.19037981596 0.17231281205 0.15037333018 0.13903870424 0.13510421738 0.12907689056 0.12407096771 0.11777769482 
0.11893267144 0.11829528797 0.11460809562 0.11691906184 0.1202115516 0.13214683464 0.13611448183 0.14546980878 0.1492811284 
0.15359458672 0.15606878202 0.16594878504 0.17491513304 0.16925727384 0.19022905827 0.18044153827 0.19316405491 0.18930233918 
0.21147204478 0.20240248424 0.21801272736 0.21036833464 0.21868739072 0.22834942841 0.23099698286 0.2370079595 0.24354322954 
0.24271218446 0.26687538394 0.25334427477 0.27039232733 0.26008118744 0.27279337072 0.2754273002 0.28360588802 0.28040832768 
0.27162598115 0.26636044871 0.26875108914 0.25743866712 0.25605562791 0.24293722657 0.8177520385 0.80825662158 0.78068873936 
0.76946186562 0.75458525495 0.72766443043 0.6885866034 0.66956134206 0.63825746832 0.6105208888 0.56273479188 0.52582688158 
0.48463753054 0.42951912158 0.38498243936 0.32551395495 0.29580218243 0.24666999095 0.21709232406 0.18998374231 0.15510486437 
0.13240768205 0.1229679557 0.11186929642 0.10962569696 0.10821998395 0.10996384087 0.12140669783 0.11860139669 0.12827583294 
0.13394793151 0.14141836299 0.14677049598 0.14669701678 0.16642696691 0.16712171109 0.16114926946 0.15557887331 0.16311055347 
0.14647980211 0.14670270744 0.15276206691 0.14328130638 0.14166923427 0.15333678078 0.17246387464 0.18241725118 0.21793075445 
0.2512177185 0.279244394 0.32987034558 0.35727779414 0.41014481347 0.44121888467 0.48101897798 0.4992855339 0.54229743488 
0.53872455673 0.56263910227 0.56626539413 0.56970852065 0.54517982627 0.53349556697 0.5196873491 0.49588151159 0.46741848538 
0.43884027971 0.40742417364 1.290094135 1.2856947964 1.2777248799 1.2646268342 1.2139580549 1.1707215003 1.1185432132 
1.0409719994 0.97206364788 0.88869750133 0.80704879269 0.69753156266 0.61848365006 0.53582959237 0.43655392832 0.3692885857 
0.30954563822 0.2566178674 0.21293587492 0.17947067484 0.14575150206 0.13560865321 0.12338759673 0.12803651103 0.12123261721 
0.12826449762 0.13440780506 0.14655169021 0.16353871385 0.16877613353 0.17338488949 0.18697030253 0.18565708753 0.17838566656 
0.16811492816 0.15097575464 0.1329518902 0.11677862494 0.10606683811 0.10318932291 0.11619236096 0.13994903427 0.18304586424 
0.23132945808 0.3002380359 0.37190424447 0.45202307632 0.52331324362 0.5950552409 0.64551115538 0.68700083843 0.70700972681 
0.71495221128 0.6900117196 0.66139481479 0.61844670494 0.56583813605 0.50121818493 0.44223884973 0.38592957177 0.35024143106 
0.30667790611 0.2985646916 0.27441036538 0.27964575216 0.28628999373 0.30707327453 0.30095054439 1.9093033594 1.917657312 
1.9046775342 1.8509431785 1.7651407741 1.6495753345 1.5562734692 1.4350053376 1.2947530434 1.1497387052 1.0321816453 
0.90740826037 0.78055238747 0.66111131988 0.54677718158 0.4470317474 0.3534808535 0.26716776255 0.21393798695 0.16271995237 
0.14501259632 0.12575972654 0.12741275492 0.11944618429 0.11885358825 0.1100760834 0.12111127095 0.11925033492 0.12538272695 
0.12801692307 0.12470216673 0.1154391539 0.1004903916 0.083205167089 0.064919903607 0.058077531977 0.057074314644 0.073823218271 
0.10517761562 0.15924345464 0.22163908467 0.2944886223 0.37197284109 0.45376304755 0.51144039777 0.57975840945 0.61680160177 
0.62133262226 0.61864990653 0.59104534805 0.54349221159 0.4814353429 0.42110085678 0.36434750894 0.30633056176 0.25969857027 
0.23767814939 0.22448942173 0.22541229604 0.23087136999 0.23608834279 0.24328573552 0.26356855079 0.27940770512 0.27456383417 
0.29805532005 0.33674246272 0.34633019773 2.4983323687 2.5456452747 2.471081623 2.3251783332 2.1230248594 1.9230407527 
1.7527676875 1.5894996927 1.4408176816 1.3247126576 1.181541403 1.0574542452 0.95955031322 0.81697912796 0.66828188529 
0.54449655721 0.41637667418 0.32329568873 0.25845215936 0.20609712714 0.19338715854 0.17066090752 0.16041995555 0.13200254921 
0.093790247025 0.067297479878 0.052670918064 0.051788734182 0.061622221582 0.077496478144 0.08958141762 0.095406562463 0.091262436319 
0.089799711977 0.1039611278 0.14564404672 0.18426982638 0.24977858005 0.30331323155 0.36002357565 0.41186349105 0.45460608667 
0.47730573204 0.4915087916 0.47322032404 0.46230507872 0.4361446956 0.37830706146 0.3136839396 0.25501049427 0.21409160494 
0.18866850504 0.19924003659 0.23052255624 0.29535089979 0.36059287559 0.44703463072 0.51018291826 0.54840944804 0.55641496866 
0.52968223036 0.46097279977 0.39486451319 0.30276410945 0.24543321596 0.22651787294 0.2739128688 0.34115725434 2.9946123225 
2.9670556305 2.8458642501 2.584908727 2.2797733282 1.997118867 1.6855271527 1.513650951 1.3779268124 1.3026555345 
1.2704998034 1.2238297088 1.1443296836 1.0446159349 0.89861019681 0.74155819492 0.60178077232 0.48721716158 0.40583791681 
0.33296415281 0.28993316029 0.2468340971 0.19985807221 0.15245159855 0.10761913229 0.08739657196 0.091187669212 0.13492766473 
0.1926950057 0.25988378429 0.28952639203 0.29812655853 0.28123006094 0.26586600949 0.25434949845 0.28206711393 0.30923796238 
0.35970611308 0.3691108216 0.35016221975 0.33806564743 0.31577663338 0.28707961294 0.26191239506 0.23108887924 0.21738931266 
0.19834453559 0.19120799746 0.18883287445 0.19626872805 0.21322915072 0.22418328396 0.2774779781 0.31457888185 0.40569816932 
0.50732187435 0.63090863658 0.74176957056 0.80918990005 0.82131564273 0.75896587109 0.62772272511 0.49512693445 0.3798169989 
0.32985062005 0.36182134501 0.46397820573 0.60371201693 3.5790699129 3.7156963905 3.6034516749 3.2285705029 2.7874758265 
2.2898158115 1.8249780236 1.5209762639 1.3797233999 1.3807528577 1.4511903608 1.5314304622 1.5115677742 1.4298939985 
1.2667409142 1.0806655514 0.91037924603 0.77146040162 0.6872985914 0.60077265103 0.53406254036 0.44700895492 0.36571076969 
0.3009198937 0.26533727866 0.27028887632 0.31483921766 0.38870336752 0.46130741229 0.52240075229 0.52356655947 0.50304596888 
0.44871966165 0.41854367838 0.42413124672 0.48307597971 0.55842476504 0.65290083741 0.69313392895 0.67967283161 0.65955256004 
0.64811681872 0.60182934672 0.60375532733 0.58770690494 0.59477024227 0.5756702149 0.52565081124 0.47564156509 0.42288300342 
0.37956604321 0.35076271601 0.31166814793 0.2913189509 0.29731058724 0.34109229865 0.40384874536 0.50097265447 0.59113492429 
0.60988230215 0.60148505941 0.54958905362 0.52921812373 0.56374046855 0.68718165886 0.82209768437 0.97490962214 1.0192311972 
3.7964435249 4.0877728328 4.1229013336 3.8555694534 3.3569036843 2.7177664176 2.1097242684 1.6845602542 1.509595711 
1.4896942616 1.6214610763 1.7497713101 1.8321401075 1.7810229875 1.6455401848 1.4099328149 1.1746010387 0.95199985229 
0.79827617502 0.70288759188 0.69378419418 0.66585348825 0.64832738832 0.55973332825 0.47476411281 0.48139517418 0.61110347899 
0.7858698651 0.97023276085 1.0464969966 1.0032597892 0.89920047546 0.78192093981 0.7178392526 0.72674377189 0.88673820094 
1.0875709423 1.3347385794 1.5186646161 1.6170282761 1.4989225939 1.3525636226 1.1394030503 0.99098828664 0.91080154279 
0.89463138694 0.86870401071 0.76073879015 0.61106159488 0.44407672829 0.32097808635 0.21423956558 0.1504868108 0.11593209026 
0.10544011509 0.13644587724 0.22924514117 0.33037936613 0.42823210328 0.47006228602 0.47585576017 0.48423982591 0.52799759217 
0.58802917314 0.6486343788 0.66600062058 0.66800014062 0.62830208283 3.7748012399 3.9957294444 4.0889291182 3.7687198079 
3.314247507 2.6655085095 2.1406330088 1.6019991956 1.3339575716 1.1848043769 1.1952999857 1.2266809741 1.2700668723 
1.2651148359 1.2125117394 1.0543875341 0.89875953232 0.72690718889 0.57937658473 0.4708204394 0.41563693766 0.48111119492 
0.63286581229 0.71373406388 0.74454963988 0.71969497418 0.75573455492 0.86430452825 1.0972788745 1.2353015082 1.2677989482 
1.196499804 1.1155614669 1.056451071 1.1438562834 1.3927936463 1.7953446557 2.1309994496 2.4240986146 2.4474128398 
2.2199671294 1.8003586569 1.4849567223 1.3634346874 1.4457557875 1.4356889685 1.2739495268 0.93867017509 0.57362901214 
0.27968140946 0.10244549738 0.056335124895 0.091544289645 0.14896050127 0.19039897204 0.21829087441 0.21810394683 0.21514566603 
0.2319555198 0.24900907398 0.29130287483 0.31297631132 0.32772239124 0.28106245443 0.24868867217 0.27471658598 0.3532845651 
0.39107690146 3.1889453183 3.3166472349 3.4303500737 3.1747740719 2.9032069194 2.5616372534 2.2676915937 1.9534502741 
1.6744407875 1.4011687932 1.1883004808 1.027462615 0.87445832355 0.73303712473 0.64956884254 0.57767684436 0.52835232606 
0.49386743988 0.46677589863 0.43538129418 0.43825489785 0.47510319362 0.55640613863 0.65743710666 0.78620782566 0.93356180829 
1.1256126809 1.2206351476 1.2727942981 1.2052389083 1.1629433082 1.1336306231 1.1735757673 1.2128580148 1.3932105636 
1.6076945027 1.9556462845 2.248670433 2.4877172112 2.315034425 2.092428478 1.5720441374 1.2972180276 1.2113897729 
1.3797357084 1.4481322883 1.3454237872 0.9625379796 0.53963133096 0.22028961186 0.15006621259 0.27313514279 0.47939408445 
0.59054439637 0.58706460991 0.48976237883 0.32372919928 0.18919685261 0.1232329895 0.13351303128 0.1870818348 0.25398362683 
0.32143347746 0.38438886591 0.40160159928 0.32820459746 0.2501442348 0.2508822455 2.3354909776 2.4737250764 2.6422910582 
2.6214892078 2.6098119203 2.3977367087 2.2668458945 2.1245588765 2.1340923483 1.9685747124 1.7971151457 1.511456728 
1.3034816702 1.0969072149 0.98005024473 0.85947154752 0.77832177418 0.69031906048 0.63128903196 0.60280810755 0.65108865418 
0.84383552962 1.1925829436 1.3849930665 1.4037695262 1.3887884675 1.8982752542 2.4217260276 2.7543147181 2.3568444896 
1.8637136908 1.4622166876 1.3326326682 1.3543547145 1.5321770071 1.6807966313 1.9359156178 2.0829035063 2.212008385 
2.0293945534 1.7544341737 1.2771535672 0.87668954938 0.64167294938 0.6805517076 0.8709178836 0.99228590318 0.85828716634 
0.5338771859 0.28388184724 0.43958552768 0.85561798443 1.1739375526 1.0746680772 0.76235827661 0.46687928283 0.2921647975 
0.16716979217 0.10787298324 0.11795769617 0.18080780813 0.30884768546 0.42307571483 0.41563369613 0.32615187661 0.28276323924 
0.3387606508 0.36978462861 2.2660726769 2.2675058433 2.271129792 2.2216135788 2.2159423046 2.1555121794 2.073547627 
1.9252421349 1.8249856034 1.7190055324 1.6099883937 1.4521155377 1.267006627 1.0479788443 0.89407427418 0.79320191492 
0.79296978755 0.84849860085 0.90733225936 0.94038888825 0.97845758077 1.005247004 1.0745380079 1.0702493759 1.1246428016 
1.2987317581 1.6927989008 1.9363735076 2.0385494178 1.8436192994 1.6411184523 1.5145827563 1.4316602954 1.4883810651 
1.579198311 1.6792928911 1.8712638021 1.9769474828 2.0725835798 1.8820875118 1.5586474717 1.1195505925 0.79161781012 
0.52260008949 0.41881512938 0.42118091605 0.47193134869 0.47925110653 0.42545956611 0.42213009731 0.69275181212 1.2119288243 
1.5530739782 1.1906645329 0.75994733988 0.47686286413 0.43530370324 0.30666745617 0.18522928865 0.12406034417 0.1356674455 
0.17181254413 0.24069620458 0.28358872546 0.2877159308 0.23483772017 0.22938825613 0.45745497613 2.0052455685 2.1561571948 
2.3496098735 2.5457623218 2.7900290646 2.8547741384 2.8553311503 2.6037659918 2.3526467045 1.9530693523 1.6213386794 
1.2384528145 1.0154739003 0.81894772825 0.71155560699 0.61396222825 0.55634314654 0.61134353418 0.68314934133 0.7772877208 
0.86772274222 0.91307960448 0.96450341502 0.9884059048 1.0224003622 1.050421971 1.1185449075 1.0994951729 1.1364306053 
1.133340103 1.2879226436 1.530572007 1.8084127442 1.8131841754 1.7989024888 1.7890308621 1.8609293682 1.9072414816 
1.9095846783 1.6599892586 1.3077226109 0.90761693956 0.71902606549 0.54833287534 0.45780472244 0.37475788085 0.38896106611 
0.35876247079 0.39014673224 0.49030000894 0.78603736494 1.1578597225 1.4319863649 1.1509179468 0.84021648944 0.68584544463 
0.69758720463 0.53586306598 0.31194320724 0.16174895132 0.14384304998 0.11869517346 0.12297856017 0.14096658594 0.14722723394 
0.13470885524 0.17550255928 0.37834429532 2.14634742 1.9850828577 1.8523914148 1.7817785644 1.8846370485 1.9595686958 
2.0255202912 1.8703746053 1.7067619749 1.4326313537 1.2237937371 1.1247392761 1.1947853923 1.2570736622 1.2455796549 
1.0730940882 0.90494802029 0.75376217629 0.68671342214 0.7346106141 0.92363786755 1.1130463892 1.289188367 1.3338996924 
1.331959591 1.2572810835 1.1961540791 1.1747712203 1.1366103839 1.0796033843 1.0872970416 1.1941749342 1.4197680008 
1.5955736466 1.7333861165 1.8574175129 1.9595457255 1.9721529103 1.8543306095 1.4370756504 0.98901871784 0.62200793384 
0.48247142122 0.45317632163 0.51396768855 0.61032991773 0.65996080706 0.68725388565 0.71178618227 0.79465283506 0.93407231712 
1.0790482102 1.2481409873 1.1296923569 0.90282475798 0.75386477128 0.83740766463 0.76814841704 0.52981366058 0.30388784283 
0.19950021083 0.22288299936 0.37396122594 0.5339489868 0.48170804283 0.3443470188 0.37710265661 0.42465057136 3.4908513196 
3.2965695329 2.9260358524 2.5022297416 2.0951487747 1.651795623 1.3290311573 1.0420648583 0.90762031584 0.85202953171 
0.99297343491 1.2604204446 1.5592635801 1.6346842959 1.5316130185 1.2720568381 1.0583117349 0.8906630434 0.88097415629 
1.0230330337 1.3006643349 1.495962695 1.5584363082 1.5336632585 1.4748638408 1.4068294511 1.3318574178 1.231437464 
1.1406783867 0.97487549155 0.99856773269 1.1624748123 1.4678647919 1.6542188127 1.8299518443 1.9358330675 2.1077741524 
2.0429882697 1.7415080056 1.2138188976 0.74847361294 0.41690417144 0.30871694227 0.29149639118 0.42728725502 0.54512861511 
0.65598542938 0.67669992805 0.80229248992 0.86200784112 0.81449009364 0.69564729106 0.82284788494 0.92328972255 0.88584138126 
0.58191944853 0.42007440939 0.46805182594 0.56784346417 0.56925297884 0.50214827662 0.51315732283 0.7052089275 1.0546071093 
1.2853495584 1.1528936961 1.041420355 0.97127074093 4.9051685097 4.8276433077 4.6288038503 4.0904139592 3.5683924303 
2.8778223562 2.1623759289 1.6114626319 1.3690181468 1.2179058478 1.1841215511 1.1201683279 1.015004857 0.85498356208 
0.80416123289 0.83308159902 0.89452753492 0.93003021236 1.0318142016 1.3383922008 1.7247309332 1.6869095676 1.3167519636 
1.1448984061 1.4595980621 1.731392746 1.781278015 1.5649853527 1.3395142616 1.1278037554 1.0001608474 0.98068030314 
1.134912819 1.3685072172 1.6981596216 2.0450954853 2.2594129599 2.0727037341 1.5799281252 0.95668982479 0.57136593239 
0.38355395189 0.31300411879 0.29202663144 0.33197834816 0.38703936933 0.46597619339 0.52518760131 0.63755623304 0.68572002706 
0.54333904466 0.32936344404 0.34274851571 0.47330359444 0.58638638368 0.43949858266 0.21200341173 0.21770432728 0.52683926065 
0.70070962428 0.65049602036 0.38430608754 0.24878545308 0.32143119289 0.60840144034 0.97166236698 1.2480229801 1.2212344794 
4.3197713003 5.0082699941 5.1779631749 4.4961993034 3.7352521949 3.0225230459 2.5525342406 2.3385474516 2.2365306576 
2.092963523 1.9300869312 1.530748112 1.1616413712 0.87725250451 0.78655804562 0.82482498206 1.0102687636 1.1441137936 
1.0691911691 1.1227926964 2.0252658132 2.734257447 2.3756240099 1.2186190196 1.3859932258 2.4557639431 3.0269468808 
2.4388126284 1.6312946417 1.074007939 0.84313380969 0.69771934266 0.69611467492 0.87833814085 1.3516735625 1.7910461012 
2.0721666914 1.9540089741 1.5561141689 0.97208724037 0.64038595988 0.46273470217 0.43731496424 0.41110513233 0.42371954494 
0.39703185033 0.45161112585 0.4945594299 0.5624640956 0.51590790493 0.43512315124 0.30849175205 0.23407767792 0.25541828538 
0.29346655472 0.21596762634 0.12919455151 0.17608200649 0.51000165713 0.79846420731 0.75289415024 0.32745678831 0.15318799262 
0.256162186 0.45641325321 0.67229658334 0.86738520062 0.78518791623 6.821850888 6.9936529984 5.9084462487 4.0422875548 
2.5899722873 1.5848796188 1.2038117362 1.1764468604 1.3046008601 1.4616920809 1.6423605368 1.587974601 1.2365961086 
0.8346420812 0.69101943527 0.69776301814 0.7219375874 0.81717358654 0.85561158133 0.84873993863 0.85365639281 0.90779540969 
0.90845471906 0.72447657947 0.96808282529 1.5809687434 1.9404983447 1.6591534483 1.2701630008 0.84786294133 0.51765179822 
0.3919011848 0.36677348889 0.33683884 0.60464072603 1.0445598821 1.443381899 1.5514693039 1.3640596253 0.97960970752 
0.72319014825 0.61580645905 0.65760882343 0.65118375633 0.66094902718 0.63304850771 0.54029284685 0.43266528704 0.38685182894 
0.39586061026 0.42613984226 0.34911727844 0.31470254805 0.34152999757 0.41362055072 0.38194152627 0.21555897951 0.10909353236 
0.20709529029 0.59148381758 0.78766433948 0.37742208603 0.2406932247 0.24055155922 0.22760302912 0.24241606627 0.27740818454 
0.24868735348 5.4235404588 4.2780252687 3.2721425122 2.4991650633 1.9705021922 1.169452082 0.77734089791 0.81497553613 
1.0055781555 0.92693202565 0.71201792839 0.72811930679 0.95235847082 0.92068638236 0.67044584212 0.44596946348 0.32614705863 
0.39508790752 0.72317426921 0.89202773321 0.79779416825 0.609106324 0.69625331863 1.3351139781 2.0049192328 1.5960119036 
0.99492225236 0.84927522085 0.96205982314 0.90944831362 0.719428344 0.53562105955 0.48810019381 0.44927436702 0.41672082744 
0.50994628166 0.83305589863 1.1092960396 1.1817182875 0.88904069629 0.69547673054 0.63306391362 0.8159773946 0.93750423793 
1.0977992408 1.249534242 1.0576215157 0.63561525024 0.42107253495 0.3926164155 0.45175336644 0.40650104894 0.3876818356 
0.47206037027 0.7189245996 0.86266345294 0.50193501827 0.081504315063 0.026143270104 0.23078676075 0.73503243236 0.57888750776 
0.30320999497 0.21326527958 0.20508218873 0.17798840982 0.15169320831 0.26617157724 2.9524610268 2.0436211068 1.9128446046 
2.6957008082 3.0341432784 1.8991619148 1.0214956114 0.87695249791 1.1852359841 1.621521106 1.6356203425 0.88534878138 
0.58822284632 0.77089207358 1.0844704274 0.99870125667 0.83087371492 0.94934683906 1.112137646 1.5537439883 2.3239698065 
3.0535264301 3.4213065657 2.9207158453 2.210988312 1.8410524149 1.7085857653 1.457835703 1.196628806 1.0735401076 
0.89897333188 0.62323658569 0.36589337248 0.28045239289 0.39196908085 0.55049397418 0.68729363637 0.78686995495 0.90934112622 
0.77181101418 0.52689463637 0.49129298299 0.67874377598 0.99605587909 1.4288577834 1.703678763 1.5839314013 1.0419151538 
0.57485493333 0.38868168121 0.37816236439 0.33942101799 0.30939262759 0.41973087838 0.60475362325 0.63039931472 0.39919175133 
0.12528743097 0.12277660999 0.40054127704 0.58859228968 0.18985530137 0.06713030279 0.061720031512 0.068261366271 0.16378877178 
0.16108380368 0.24619950474 3.4794031326 3.0304870081 3.0095043202 2.9131831539 2.145018218 1.1338502899 0.92142673095 
1.1314677148 1.3259637495 1.8353287775 2.4310030426 1.435840092 0.64183212246 0.72206776131 1.4757445381 1.8918035832 
1.6403803581 1.6903398043 1.7015086853 1.3397127682 0.947468896 1.1617878688 2.4615880194 4.896594871 7.3852368959 
7.4220382647 5.7752685582 4.0805833675 3.3332568612 2.7870547248 2.1236903457 1.6046601138 1.210552491 0.70783802752 
0.63547721418 0.79221536489 0.96299652158 0.8806056314 0.62463679673 0.41259141232 0.24346138032 0.25998986603 0.57872229196 
0.96637941374 1.4476042836 1.8071033757 1.7328851317 1.2439203802 0.79112086747 0.46925789989 0.33074690912 0.22592323373 
0.19875195427 0.3064284476 0.35318719427 0.23210779072 0.13305564983 0.17577272999 0.57393670093 0.97017920956 0.67471924333 
0.13832753178 0.19203350538 0.21421130227 0.10033496771 0.079065069844 0.28786336585 0.68308612878 3.1650474198 2.7017844552 
2.5177920767 2.3272146891 1.4814491219 0.97899446817 1.1421928794 1.4845690135 1.7207910472 1.4875590955 1.4428509892 
1.0639629222 0.58299032368 0.55089058371 0.63399891811 0.75564981874 1.0449237279 1.1784931256 0.98600116166 0.59916221229 
0.88154610832 1.4326616275 1.2117227502 0.51588030614 1.3041842327 3.2271231399 4.1503042808 3.0129266527 2.1618020607 
2.1961988302 2.7246242897 2.5055417937 2.1149276204 1.5003641882 1.1466445488 1.0303374267 1.3635880863 1.6034533911 
1.231564935 0.55529849863 0.20523498481 0.13594287944 0.38902065333 0.97011816956 1.6540158164 2.0424800943 1.8109278817 
1.1822588876 0.73461188078 0.42934079416 0.342810499 0.33798160122 0.26285213693 0.18396895038 0.15139061506 0.11847061339 
0.20852486272 0.44538653826 0.74923611427 0.80096762519 0.53014434051 0.31941754413 0.60869410627 0.61766219027 0.39714909819 
0.38179443168 0.65977668784 1.1380094074 3.622327214 1.7078523041 2.647925194 2.7981838696 1.1920967255 0.72208635924 
0.88263978744 1.4722853922 2.8295827762 3.3636282657 2.4957057303 1.4205082063 1.0096978245 0.76358487624 0.56476905669 
0.40864304559 0.49394881492 0.73798476788 1.0339398927 1.3435000403 1.6603954316 1.5370723715 1.8649689564 2.1358629442 
1.4424219342 1.3319180729 2.9091942209 3.2972338053 2.7443528549 1.5484204293 1.987781424 2.9677062782 3.0340586507 
2.5141228578 1.9838558074 1.8421005349 2.2603803475 2.4321724017 2.2677337449 1.6622591403 0.964194496 0.74179380377 
0.87732976702 1.2388155882 1.6495392384 1.6288462196 1.3018321572 1.0048423469 0.71887402315 0.43882936463 0.38902254989 
0.5995547196 0.71172371944 0.64555376413 0.56764168138 0.33079697294 0.2772799756 0.39813108227 0.54884520627 0.56447644627 
0.52719064672 0.50938605205 0.96084887186 0.85414844263 0.43556178371 0.61035359931 1.2026493051 1.3665592264 2.3203453682 
1.0247715726 2.8207412624 2.0609016793 0.42433383665 0.46286870914 0.9871978531 2.0338917708 4.7229034084 5.7947301421 
3.7097421506 1.5402611739 1.0495457186 0.85667831384 0.76097358584 0.55731885253 0.50571931088 0.68452100873 0.91386689426 
1.0493118074 1.0294225524 3.4262454542 7.6919587396 7.8360352267 5.3227364996 2.6545840729 1.4177685565 1.1665137973 
1.482030687 1.1627249693 0.94691345451 2.1528979408 3.6433512537 3.9216812377 3.5234468257 2.8855876075 2.5886612133 
2.1851102142 2.1566319127 2.067780352 1.8465361335 1.9724248907 2.174355396 1.8766938616 1.2925349848 0.74715285091 
0.62867081811 0.66718612212 0.87261825596 0.58471969001 0.3119594996 0.43664208958 0.63343200291 0.69159128494 1.0288732696 
0.64337939518 0.28858298538 0.25717064619 0.33904241827 0.25421751427 0.27794303479 0.35749945472 0.47306704004 0.34183977809 
0.16788145026 0.35774187631 0.92381438061 1.4606374135 2.2222643415 0.9740040935 3.9392286847 3.0122135651 0.7267752215 
0.44061470829 0.6394399895 2.5453795895 7.2135436724 9.1717455216 5.3845793981 1.5913568728 0.93082943013 1.1776481596 
0.77891770753 0.362911354 0.59096509279 0.96199803177 0.8540864171 0.89889411629 1.1665890497 2.9954136088 5.533730815 
5.8352583976 6.3100404676 6.5328199533 4.4962665723 2.029172887 1.0158209008 1.0771378297 1.3598439785 1.9154533243 
3.5227622044 5.1123534177 5.6855351599 4.9284435208 3.4880981547 2.0243006256 2.0362670569 2.52444208 3.1565808825 
4.0695133804 4.3335798798 3.0374271021 1.520324382 0.86319299845 0.54907942326 0.49650160184 0.69682874786 0.31970222281 
0.29799791259 0.72397776005 0.95444584922 1.019443672 1.2544206255 0.76853574545 0.37466768399 0.32946192579 0.36005713505 
0.24862607827 0.23949431213 0.24599196504 0.26799010004 0.26425049568 0.24696806904 0.25678658146 0.70639135124 1.2294387299 
2.0982417086 1.1654928838 3.2840884295 3.2278972748 1.2012441442 0.51270588062 0.39436808817 2.013804308 5.7864896887 
8.2454457664 5.17348655 1.4083268179 0.65717546744 1.8459624408 2.4944653969 1.3066121271 0.61380670603 0.61606902032 
1.011656392 0.94162016566 0.69785026752 0.75908399632 2.1000065245 4.3885712853 4.7020646337 3.5551876088 3.2863231016 
2.8370637927 2.3407481858 2.2139686408 2.224376536 2.648395126 3.5552901616 4.6586785474 6.1645882075 6.9947296804 
5.6997536839 2.835364376 2.5888916213 4.166253015 5.9110875889 6.5506890484 5.996599943 3.9644222581 2.2009822029 
1.7448096797 1.0389761401 0.76088836798 0.69640256372 0.23747874773 0.1662976153 0.70699351722 1.0564503423 0.81734716894 
0.53872430691 0.29398771962 0.28135748088 0.25459130888 0.24964225632 0.24990019477 0.31938047184 0.34517749125 0.34423894494 
0.9578196334 1.1376449346 0.6437667131 1.1151747842 1.4547651735 2.5171014287 2.2082358394 2.9381999333 3.0837092802 
1.5606494401 0.65368084813 0.50292532017 1.6336974135 3.5168260045 5.5909209783 4.5835242617 2.1406456556 0.79332212344 
0.74592762211 1.392657085 0.77032778273 1.3359756882 2.7655764052 3.0457468821 2.9831666808 2.7886647457 2.483430743 
3.344239851 5.3975823856 7.1517033933 7.779027026 8.0673455165 8.1374981359 7.6566245519 6.5687815892 5.5278070905 
5.1661825156 4.607428979 4.0976871794 3.6597293127 3.494389064 3.4600468675 2.9994130116 3.1164657714 4.8963362008 
7.4141196383 8.1434939656 7.2475015947 5.2903417292 3.8119256217 3.5671056531 2.6293610818 1.3583414734 0.88633357302 
0.39281944385 0.15672202258 0.29719108158 0.60592845346 0.57110623027 0.32726864911 0.26453031307 0.60026259488 0.57807046948 
0.48991071761 0.33344120494 0.47585208842 0.3876041676 0.44528772627 1.0464750386 1.6773628734 1.3928173379 1.0537569175 
0.69701451754 4.4119613415 3.7421478882 3.4271992549 2.6675616962 1.5440233247 0.82715814683 0.79004320498 1.5955782419 
2.6162107357 3.6080484668 3.5685128117 2.8068155625 1.8489191121 0.75170282656 1.4976635954 0.65184235895 1.4314709616 
2.0639651067 2.3066915465 3.2377604007 2.5853255559 0.81415557418 1.0013959323 1.3968061893 1.7436685199 2.403479447 
3.7581988817 4.8989630408 5.2071684816 5.0286485289 4.8749608448 4.5941824349 3.9571495332 3.3450599057 2.7330702261 
1.8251809004 1.4274149653 1.3123327994 1.4548081919 3.7415927941 9.0921544745 12.533800518 12.033241193 9.0291104536 
5.7230953188 3.9347342166 2.7830476702 1.8807150786 1.3264016169 1.0216541353 0.86666686457 0.67022073443 0.48469579215 
0.5043360417 0.59786566754 0.59068455791 0.50455629576 0.47931524164 0.73169779694 0.63219560672 0.53300927106 0.36412880725 
0.34582284768 0.80465643088 1.8012829382 1.5544216899 0.93465205136 0.5318861975 5.0791102002 5.5834556687 4.7720246366 
3.327525475 2.0966902971 1.4086085015 1.2232935815 1.7938761485 2.1620889738 2.058231408 2.1752453732 2.0654266205 
1.7843081136 0.72422036158 1.6521870203 0.44750006825 0.81326868744 0.64151681637 0.77467281588 1.7377219172 1.841592343 
0.81904169854 0.70506762581 0.85409269084 1.2753802461 2.5992583519 3.704754143 5.2792658956 5.8116337194 5.631944269 
5.2728326086 5.1497128015 4.7626078633 4.586742378 4.385942641 3.1640266434 2.0360792296 1.1999043511 0.90642001762 
4.3390176148 12.838386175 17.95146611 17.482181833 11.908239544 6.9151794958 4.6704708513 4.1789009189 3.4337436125 
2.681845731 2.8318331535 3.6452564173 3.3590874738 2.3195931079 1.6476993239 1.3881013084 1.0533200714 0.7422932821 
0.41399725179 0.92992915472 1.3352422704 1.0403258649 0.70684074424 0.74916558538 1.2563965763 1.170147391 0.94470117346 
1.1410817011 1.0357569265 6.1665122775 8.3687145015 7.2723390099 4.0549969121 2.3174002971 1.5638269762 1.2455920505 
1.5166237983 1.60567326 1.3874991578 1.5247170053 1.6030641546 1.4940739963 0.44132473406 1.1090396661 0.86441828521 
1.6527002345 1.1113509264 1.6757043457 2.0654178102 2.2434721572 2.9006603479 3.5030699368 4.1152278816 5.8608788754 
7.0740557124 7.2813185381 7.654147678 7.5364686169 7.0881650295 6.9459989122 6.7532407813 6.4972832234 5.6064547026 
4.2690772127 2.7818181645 1.5676580201 0.91371338067 1.2684983212 3.5311874705 8.252234151 13.300152964 15.739944215 
13.49379932 9.653342364 7.1286814751 6.4695611602 5.8285694293 4.3799660337 3.6390943979 4.1374284894 3.8387690108 
2.8468842983 2.0410309988 1.3812316204 1.1872915882 0.99882255605 0.7294491271 1.0807234074 1.3948535005 1.1760443579 
0.7976432555 0.88921341601 0.20866602324 0.38142752728 0.42668038683 1.458023362 1.2716905539 7.3373797673 8.084480274 
7.2106905548 4.2811312313 2.0007036927 1.3156651735 1.0669472725 1.0321997926 0.97404714405 1.1088430002 1.453791485 